VARIABLES="w (rad/s)"
"abs(F	1	1)" "angle(F	1	1)"
"abs(F	1	2)" "angle(F	1	2)"
"abs(F	1	3)" "angle(F	1	3)"
"abs(F	1	4)" "angle(F	1	4)"
"abs(F	1	5)" "angle(F	1	5)"
"abs(F	1	6)" "angle(F	1	6)"
"abs(F	2	7)" "angle(F	2	7)"
"abs(F	2	8)" "angle(F	2	8)"
"abs(F	2	9)" "angle(F	2	9)"
"abs(F	2	10)" "angle(F	2	10)"
"abs(F	2	11)" "angle(F	2	11)"
"abs(F	2	12)" "angle(F	2	12)"
Zone t="FKforce - beta =	45.00000125223908",I=	40,F=POINT
0.1	12392.559	-1.5707964	12392.559	-1.5707937	488262.25	-0.0	10277.059	1.5707994	10258.678	-1.5707992	0.0	-3.1415925	24782.467	-1.0642563	24782.496	-1.0642549	976420.6	0.5065403	41053.055	2.0773342	97642070.0	-2.634632	2478249.0	-1.0642554	
0.14871795	18451.635	-1.5707955	18451.633	-1.5707964	485554.8	-0.0	15303.995	1.5707964	15276.704	-1.5707953	0.09375509	3.1311765	36894.484	-0.8143519	36894.508	-0.8143513	970879.3	0.7564452	61044.04	2.3272417	97087950.0	-2.384519	3689451.8	-0.81435114	
0.1974359	24536.77	-1.5707964	24536.768	-1.570795	481794.44	-0.0	20355.213	1.5707979	20319.066	-1.5707971	0.06253051	-3.1103528	49052.773	-0.56070733	49052.79	-0.5607075	963181.44	1.010089	81025.32	2.5808847	96318170.0	-2.1306632	4905279.0	-0.5607084	
0.24615385	30657.521	-1.5707968	30657.521	-1.5707964	476988.94	-0.0	25439.682	1.570795	25394.748	-1.5707964	0.001953125	-1.5707964	61274.125	-0.30199465	61274.18	-0.30199492	953341.4	1.2688016	100995.03	2.8395977	95334200.0	-1.8717325	6127417.5	-0.30199528	
0.2948718	36824.297	-1.5707972	36824.297	-1.5707964	471148.88	-1.036363e-09	30567.215	1.5707964	30513.582	-1.5707958	0.001953125	-1.5707964	73576.78	-0.03679343	73576.83	-0.03679298	941378.75	1.534003	120953.375	3.1047986	94137960.0	-1.6063058	7357683.0	-0.03679434	
0.34358975	43048.6	-1.5707964	43048.6	-1.5707964	464287.88	-1.0516777e-09	35748.766	1.5707964	35686.535	-1.5707967	0.016105881	-0.24497867	85980.69	0.23643592	85980.78	0.23643585	927319.06	1.8072321	140901.78	-2.9051566	92732020.0	-1.3328424	8598078.0	0.23643462	
0.3923077	49343.04	-1.570796	49343.04	-1.5707964	456423.38	-0.0	40996.445	1.5707964	40925.754	-1.5707964	0.015625	-3.1415925	98507.45	0.51936764	98507.6	0.5193677	911194.5	2.0901642	160843.36	-2.6222248	91119590.0	-1.0496647	9850761.0	0.5193666	
0.44102564	55721.805	-1.5707964	55721.805	-1.5707968	447577.0	-0.0	46324.082	1.5707957	46245.07	-1.5707964	0.015625	-3.1415925	111181.086	0.8138576	111181.26	0.81385756	893045.44	2.384654	180783.84	-2.3277354	89304730.0	-0.75491595	11118130.0	0.8138559	
0.4897436	62200.402	-1.5707958	62200.406	-1.5707964	437775.56	2.2307378e-09	51747.04	1.5707964	51659.867	-1.5707963	0.03125	-3.1415925	124027.2	1.1219528	124027.53	1.1219525	872921.9	2.692749	200730.17	-2.01964	87292420.0	-0.44654605	12402752.0	1.1219509	
0.5384615	68796.03	-1.5707961	68796.03	-1.5707964	427051.75	-0.0	57282.695	1.5707958	57187.56	-1.5707963	0.078125	-0.0	137073.56	1.4459362	137073.98	1.4459363	850885.1	3.0167325	220691.75	-1.6956568	85088800.0	-0.12226851	13707399.0	1.4459342	
0.5871795	75526.86	-1.5707964	75526.86	-1.5707964	415445.88	-2.3506372e-09	62950.008	1.5707964	62847.117	-1.5707964	0.017469281	0.4636476	150348.12	1.7883275	150348.73	1.7883276	827010.8	-2.9240615	240677.81	-1.3532649	82701420.0	0.22043912	15034870.0	1.7883253	
0.63589746	82411.805	-1.5707964	82411.805	-1.5707959	403006.62	4.846384e-09	68769.56	1.5707964	68659.16	-1.5707964	0.017469281	-2.6779451	163878.31	2.1519036	163879.1	2.1519036	801390.94	-2.5604854	260696.47	-0.9896889	80139520.0	0.5843578	16387910.0	2.151901	
0.6846154	89469.734	-1.5707965	89469.734	-1.5707964	389792.2	-0.0	74763.125	1.5707959	74645.48	-1.5707965	0.034938563	-0.4636476	177688.78	2.5397005	177689.78	2.5397007	774135.75	-2.1726882	280752.8	-0.60189164	77414080.0	0.97252816	17768976.0	2.5396976	
0.73333335	96717.31	-1.5707965	96717.31	-1.5707966	375872.44	-0.0	80952.15	1.5707964	80827.56	-1.5707959	0.0078125	1.5707964	191796.36	2.954941	191797.69	2.954941	745378.4	-1.757448	300842.72	-0.18665147	74538450.0	1.3881778	19179766.0	2.954938	
0.78205127	104167.56	-1.5707964	104167.56	-1.5707964	361328.2	2.7027023e-09	87356.875	1.5707964	87225.72	-1.5707965	0.0	-3.1415925	206206.86	-2.8821807	206208.58	-2.8821807	715274.2	-1.3113846	320949.5	0.25941163	71528140.0	1.8346918	20620858.0	-2.8821843	
0.83076924	111826.06	-1.570796	111826.06	-1.5707964	346253.0	-2.8203726e-09	93993.41	1.5707966	93856.09	-1.5707965	0.017469281	2.6779451	220906.36	-2.4019382	220908.56	-2.4019384	684004.44	-0.831142	341034.16	0.7396545	68401290.0	2.3154328	22090860.0	-2.401942	
0.87948716	119687.97	-1.5707964	119687.97	-1.5707964	330750.56	-0.0	100871.42	1.5707964	100728.445	-1.5707963	0.0078125	-1.5707964	235855.19	-1.884316	235858.03	-1.8843158	651772.06	-0.3135197	361028.94	1.2572769	65178210.0	2.8336082	23585806.0	-1.88432	
0.92820513	127734.0	-1.5707963	127734.0	-1.5707964	314933.2	-0.0	107990.83	1.5707964	107842.75	-1.5707964	0.0078125	1.5707964	250979.4	-1.3265088	250983.03	-1.3265089	618799.94	0.24428761	380828.06	1.815084	61881164.0	-2.8911552	25098306.0	-1.3265129	
0.97692305	135927.05	-1.5707964	135927.05	-1.5707964	298918.06	-6.5339814e-09	115338.67	1.570796	115186.14	-1.5707963	0.015625	-3.1415925	266164.66	-0.72633606	266169.25	-0.72633606	585324.8	0.8444603	400280.9	2.4152565	58533850.0	-2.2902987	26616920.0	-0.72634083	
1.025641	144211.25	-1.5707963	144211.27	-1.5707961	282821.38	-0.0	122887.734	1.5707964	122731.53	-1.5707965	0.017469281	0.4636476	281254.88	-0.082378946	281260.62	-0.082378924	551586.1	1.4884175	419192.62	3.0592139	55160210.0	-1.6455809	28126064.0	-0.08238395	
1.0743589	152512.61	-1.5707963	152512.61	-1.5707964	266753.44	-0.0	130596.2	1.5707961	130437.22	-1.5707963	0.0390625	-2.4980915	296055.16	0.6059372	296062.34	0.60593706	517817.88	2.1767333	437328.2	-2.5356555	51783630.0	-0.9564196	29606234.0	0.6059316	
1.1230769	160741.94	-1.5707964	160741.95	-1.5707964	250814.98	7.787114e-09	138409.22	1.5707964	138248.4	-1.5707964	0.022097087	-0.7853982	310339.78	1.3383683	310348.7	1.3383682	484241.12	2.9091647	454423.22	-1.8032244	48426244.0	-0.22305039	31034868.0	1.3383622	
1.1717949	168800.6	-1.5707964	168800.58	-1.5707965	235094.1	-8.307844e-09	146262.31	1.5707959	146100.81	-1.5707963	0.046875	-1.5707964	323865.22	2.1140432	323876.16	2.114043	451057.5	-2.5983458	470200.8	-1.0275494	45108200.0	0.553664	32387618.0	2.1140368	
1.2205129	176586.0	-1.5707963	176586.0	-1.5707964	219666.03	8.891338e-09	154085.34	1.5707965	153924.31	-1.5707963	0.015625	-0.0	336383.78	2.9316776	336397.1	2.9316773	418447.72	-1.7807115	484388.1	-0.20991531	41847572.0	1.372449	33639708.0	2.9316707	
1.2692307	183997.47	-1.5707964	183997.47	-1.5707964	204594.34	1.9092658e-08	161806.23	1.5707965	161646.88	-1.5707964	0.015625	-3.1415925	347656.28	-2.4933727	347672.28	-2.4933727	386572.44	-0.9225763	496731.56	0.64821994	38660436.0	2.231857	34767228.0	-2.49338	
1.3179487	190940.44	-1.5707964	190940.44	-1.5707964	189931.97	-1.0283287e-08	169354.19	1.5707963	169197.78	-1.5707963	0.0	-3.1415925	357462.28	-1.5961301	357481.34	-1.5961301	355573.0	-0.025333852	507008.3	1.5454624	35560910.0	3.1305082	35748136.0	-1.596138	
1.3666667	197328.6	-1.5707963	197328.6	-1.5707964	175724.4	2.2229411e-08	176660.92	1.5707963	176508.73	-1.5707964	0.015625	-0.0	365605.5	-0.6610274	365628.06	-0.6610273	325575.97	0.90976906	515031.5	2.4805653	32561668.0	-2.2160153	36562804.0	-0.66103566	
1.4153847	203085.08	-1.5707965	203085.08	-1.5707964	162011.19	-0.0	183661.31	1.5707964	183514.56	-1.5707964	0.022097087	-2.3561945	371917.84	0.3108965	371944.25	0.3108965	296695.16	1.8816928	520652.56	-2.8306963	29674078.0	-1.2423633	37194424.0	0.31088746	
1.4641025	208142.88	-1.5707964	208142.88	-1.5707964	148826.66	-0.0	190293.38	1.5707964	190153.22	-1.5707963	0.044194173	-0.7853982	376260.84	1.3188527	376291.38	1.3188527	269031.5	2.889649	523761.12	-1.82274	26908246.0	-0.23248874	37629140.0	1.3188432	
1.5128205	212443.94	-1.5707964	212443.94	-1.5707964	136201.44	-0.0	196497.28	1.5707964	196364.8	-1.5707964	0.0	-3.1415925	378526.0	2.3622036	378561.03	2.3622036	242675.52	-2.3501854	524282.53	-0.7793892	24273208.0	0.8129962	37856104.0	2.3621936	
1.5615385	215939.44	-1.5707964	215939.44	-1.5707963	124160.63	-0.0	202215.56	1.5707964	202091.72	-1.5707963	0.015625	-0.0	378635.53	-2.842606	378675.3	-2.842606	217702.61	-1.2718098	522175.78	0.2989865	21776514.0	1.8937511	37867532.0	-2.8426166	
1.6102564	218588.25	-1.5707964	218588.25	-1.5707964	112726.17	1.7326277e-08	207391.31	1.5707964	207277.0	-1.5707964	0.03125	1.5707964	376542.06	-1.7295481	376586.75	-1.7295481	194177.22	-0.15875177	517430.84	1.4120446	19424608.0	3.009468	37658680.0	-1.7295588	
1.6589743	220357.28	-1.5707963	220357.3	-1.5707964	101913.984	-0.0	211968.84	1.5707964	211864.75	-1.5707964	0.015625	1.5707964	372228.72	-0.58192295	372278.47	-0.58192295	172146.7	0.98887336	510065.9	2.5596697	17222218.0	-2.1231134	37227850.0	-0.5819341	
1.7076923	221220.39	-1.5707964	221220.4	-1.5707963	91736.59	-0.0	215892.34	1.5707964	215799.0	-1.5707964	0.00390625	-3.1415925	365710.03	0.60006666	365764.94	0.6000667	151646.16	2.1708632	500127.28	-2.541526	15172852.0	-0.9377781	36576496.0	0.6000552	
1.7564102	221158.69	-1.5707964	221158.69	-1.5707964	82200.53	-2.376049e-08	219106.7	1.5707963	219024.5	-1.5707963	0.01953125	-0.9272952	357031.62	1.8163702	357091.62	1.8163702	132692.83	-2.8960187	487686.66	-1.3252224	13278232.0	0.28229254	35709170.0	1.8163586	
1.8051282	220160.1	-1.5707964	220160.1	-1.5707964	73307.33	-0.0	221557.34	1.5707963	221486.53	-1.5707964	0.015625	1.5707964	346270.3	3.0669596	346335.2	3.0669596	115288.36	-1.6454294	472841.1	-0.074633	11538519.0	1.5371345	34633520.0	3.0669477	
1.8538462	218219.34	-1.5707964	218219.34	-1.5707963	65053.836	-1.5011604e-08	223190.58	1.5707964	223131.19	-1.5707963	0.017469281	1.1071488	333533.9	-1.9313838	333603.5	-1.9313838	99419.17	-0.36058748	455712.78	1.2102089	9952346.0	2.8267891	33360348.0	-1.9313959	
1.902564	215337.78	-1.5707963	215337.78	-1.5707964	57431.887	-0.0	223954.19	1.5707964	223906.12	-1.5707964	0.016105881	-1.815775	318960.66	-0.612284	319034.47	-0.612284	85056.375	0.95851225	436448.53	2.5293086	8516818.0	-2.1318362	31903446.0	-0.6122961	
1.951282	211523.56	-1.5707964	211523.56	-1.5707963	50429.168	-0.0	223798.31	1.5707964	223761.31	-1.5707963	0.016687507	1.2120256	302718.6	0.74103403	302796.1	0.74103403	72157.62	2.3118303	415220.97	-2.4005587	7227688.0	-0.77230865	30279610.0	0.7410221	
2.0	206791.4	-1.5707964	206791.4	-1.5707964	44029.03	-0.0	222676.03	1.5707964	222649.72	-1.5707963	0.031310976	1.6332152	285003.06	2.1285686	285083.6	2.1285686	60667.375	-2.5838203	392227.38	-1.0130241	6079391.5	0.6223046	28508358.0	2.128557	
