VARIABLES="X" "Y" "Z" "NX" "NY" "NZ" "A"
ZONE N=	693	, E=	560	, F=FEPOINT,ET=QUADRILATERAL
0.0	-5.0	-5.0	0.	0.	0.	0.
0.0	-5.0	-4.285714149475098	0.	0.	0.	0.
0.0	-5.0	-3.5714285373687744	0.	0.	0.	0.
0.0	-5.0	-2.857142925262451	0.	0.	0.	0.
0.0	-5.0	-2.142857074737549	0.	0.	0.	0.
0.0	-5.0	-1.4285714626312256	0.	0.	0.	0.
0.0	-5.0	-0.7142859101295471	0.	0.	0.	0.
0.0	-5.0	0.0	0.	0.	0.	0.
-0.5	-4.5	-5.0	0.	0.	0.	0.
-0.5	-4.5	-4.285714149475098	0.	0.	0.	0.
-0.5	-4.5	-3.5714285373687744	0.	0.	0.	0.
-0.5	-4.5	-2.857142925262451	0.	0.	0.	0.
-0.5	-4.5	-2.142857074737549	0.	0.	0.	0.
-0.5	-4.5	-1.4285714626312256	0.	0.	0.	0.
-0.5	-4.5	-0.7142859101295471	0.	0.	0.	0.
-0.5	-4.5	0.0	0.	0.	0.	0.
-1.0	-4.0	-5.0	0.	0.	0.	0.
-1.0	-4.0	-4.285714149475098	0.	0.	0.	0.
-1.0	-4.0	-3.5714285373687744	0.	0.	0.	0.
-1.0	-4.0	-2.857142925262451	0.	0.	0.	0.
-1.0	-4.0	-2.142857074737549	0.	0.	0.	0.
-1.0	-4.0	-1.4285714626312256	0.	0.	0.	0.
-1.0	-4.0	-0.7142859101295471	0.	0.	0.	0.
-1.0	-4.0	0.0	0.	0.	0.	0.
-1.5	-3.5	-5.0	0.	0.	0.	0.
-1.5	-3.5	-4.285714149475098	0.	0.	0.	0.
-1.5	-3.5	-3.5714285373687744	0.	0.	0.	0.
-1.5	-3.5	-2.857142925262451	0.	0.	0.	0.
-1.5	-3.5	-2.142857074737549	0.	0.	0.	0.
-1.5	-3.5	-1.4285714626312256	0.	0.	0.	0.
-1.5	-3.5	-0.7142859101295471	0.	0.	0.	0.
-1.5	-3.5	0.0	0.	0.	0.	0.
-2.0	-3.0	-5.0	0.	0.	0.	0.
-2.0	-3.0	-4.285714149475098	0.	0.	0.	0.
-2.0	-3.0	-3.5714285373687744	0.	0.	0.	0.
-2.0	-3.0	-2.857142925262451	0.	0.	0.	0.
-2.0	-3.0	-2.142857074737549	0.	0.	0.	0.
-2.0	-3.0	-1.4285714626312256	0.	0.	0.	0.
-2.0	-3.0	-0.7142859101295471	0.	0.	0.	0.
-2.0	-3.0	0.0	0.	0.	0.	0.
-2.5	-2.5	-5.0	0.	0.	0.	0.
-2.5	-2.5	-4.285714149475098	0.	0.	0.	0.
-2.5	-2.5	-3.5714285373687744	0.	0.	0.	0.
-2.5	-2.5	-2.857142925262451	0.	0.	0.	0.
-2.5	-2.5	-2.142857074737549	0.	0.	0.	0.
-2.5	-2.5	-1.4285714626312256	0.	0.	0.	0.
-2.5	-2.5	-0.7142859101295471	0.	0.	0.	0.
-2.5	-2.5	0.0	0.	0.	0.	0.
-3.0	-2.0	-5.0	0.	0.	0.	0.
-3.0	-2.0	-4.285714149475098	0.	0.	0.	0.
-3.0	-2.0	-3.5714285373687744	0.	0.	0.	0.
-3.0	-2.0	-2.857142925262451	0.	0.	0.	0.
-3.0	-2.0	-2.142857074737549	0.	0.	0.	0.
-3.0	-2.0	-1.4285714626312256	0.	0.	0.	0.
-3.0	-2.0	-0.7142859101295471	0.	0.	0.	0.
-3.0	-2.0	0.0	0.	0.	0.	0.
-3.5	-1.5	-5.0	0.	0.	0.	0.
-3.5	-1.5	-4.285714149475098	0.	0.	0.	0.
-3.5	-1.5	-3.5714285373687744	0.	0.	0.	0.
-3.5	-1.5	-2.857142925262451	0.	0.	0.	0.
-3.5	-1.5	-2.142857074737549	0.	0.	0.	0.
-3.5	-1.5	-1.4285714626312256	0.	0.	0.	0.
-3.5	-1.5	-0.7142859101295471	0.	0.	0.	0.
-3.5	-1.5	0.0	0.	0.	0.	0.
-4.0	-1.0	-5.0	0.	0.	0.	0.
-4.0	-1.0	-4.285714149475098	0.	0.	0.	0.
-4.0	-1.0	-3.5714285373687744	0.	0.	0.	0.
-4.0	-1.0	-2.857142925262451	0.	0.	0.	0.
-4.0	-1.0	-2.142857074737549	0.	0.	0.	0.
-4.0	-1.0	-1.4285714626312256	0.	0.	0.	0.
-4.0	-1.0	-0.7142859101295471	0.	0.	0.	0.
-4.0	-1.0	0.0	0.	0.	0.	0.
-4.5	-0.5	-5.0	0.	0.	0.	0.
-4.5	-0.5	-4.285714149475098	0.	0.	0.	0.
-4.5	-0.5	-3.5714285373687744	0.	0.	0.	0.
-4.5	-0.5	-2.857142925262451	0.	0.	0.	0.
-4.5	-0.5	-2.142857074737549	0.	0.	0.	0.
-4.5	-0.5	-1.4285714626312256	0.	0.	0.	0.
-4.5	-0.5	-0.7142859101295471	0.	0.	0.	0.
-4.5	-0.5	0.0	0.	0.	0.	0.
-5.0	0.0	-5.0	0.	0.	0.	0.
-5.0	0.0	-4.285714149475098	0.	0.	0.	0.
-5.0	0.0	-3.5714285373687744	0.	0.	0.	0.
-5.0	0.0	-2.857142925262451	0.	0.	0.	0.
-5.0	0.0	-2.142857074737549	0.	0.	0.	0.
-5.0	0.0	-1.4285714626312256	0.	0.	0.	0.
-5.0	0.0	-0.7142859101295471	0.	0.	0.	0.
-5.0	0.0	0.0	0.	0.	0.	0.
5.0	0.0	-5.0	0.	0.	0.	0.
5.0	0.0	-4.285714149475098	0.	0.	0.	0.
5.0	0.0	-3.5714285373687744	0.	0.	0.	0.
5.0	0.0	-2.857142925262451	0.	0.	0.	0.
5.0	0.0	-2.142857074737549	0.	0.	0.	0.
5.0	0.0	-1.4285714626312256	0.	0.	0.	0.
5.0	0.0	-0.7142859101295471	0.	0.	0.	0.
5.0	0.0	0.0	0.	0.	0.	0.
4.5	-0.5	-5.0	0.	0.	0.	0.
4.5	-0.5	-4.285714149475098	0.	0.	0.	0.
4.5	-0.5	-3.5714285373687744	0.	0.	0.	0.
4.5	-0.5	-2.857142925262451	0.	0.	0.	0.
4.5	-0.5	-2.142857074737549	0.	0.	0.	0.
4.5	-0.5	-1.4285714626312256	0.	0.	0.	0.
4.5	-0.5	-0.7142859101295471	0.	0.	0.	0.
4.5	-0.5	0.0	0.	0.	0.	0.
4.0	-1.0	-5.0	0.	0.	0.	0.
4.0	-1.0	-4.285714149475098	0.	0.	0.	0.
4.0	-1.0	-3.5714285373687744	0.	0.	0.	0.
4.0	-1.0	-2.857142925262451	0.	0.	0.	0.
4.0	-1.0	-2.142857074737549	0.	0.	0.	0.
4.0	-1.0	-1.4285714626312256	0.	0.	0.	0.
4.0	-1.0	-0.7142859101295471	0.	0.	0.	0.
4.0	-1.0	0.0	0.	0.	0.	0.
3.5	-1.5	-5.0	0.	0.	0.	0.
3.5	-1.5	-4.285714149475098	0.	0.	0.	0.
3.5	-1.5	-3.5714285373687744	0.	0.	0.	0.
3.5	-1.5	-2.857142925262451	0.	0.	0.	0.
3.5	-1.5	-2.142857074737549	0.	0.	0.	0.
3.5	-1.5	-1.4285714626312256	0.	0.	0.	0.
3.5	-1.5	-0.7142859101295471	0.	0.	0.	0.
3.5	-1.5	0.0	0.	0.	0.	0.
3.0	-2.0	-5.0	0.	0.	0.	0.
3.0	-2.0	-4.285714149475098	0.	0.	0.	0.
3.0	-2.0	-3.5714285373687744	0.	0.	0.	0.
3.0	-2.0	-2.857142925262451	0.	0.	0.	0.
3.0	-2.0	-2.142857074737549	0.	0.	0.	0.
3.0	-2.0	-1.4285714626312256	0.	0.	0.	0.
3.0	-2.0	-0.7142859101295471	0.	0.	0.	0.
3.0	-2.0	0.0	0.	0.	0.	0.
2.5	-2.5	-5.0	0.	0.	0.	0.
2.5	-2.5	-4.285714149475098	0.	0.	0.	0.
2.5	-2.5	-3.5714285373687744	0.	0.	0.	0.
2.5	-2.5	-2.857142925262451	0.	0.	0.	0.
2.5	-2.5	-2.142857074737549	0.	0.	0.	0.
2.5	-2.5	-1.4285714626312256	0.	0.	0.	0.
2.5	-2.5	-0.7142859101295471	0.	0.	0.	0.
2.5	-2.5	0.0	0.	0.	0.	0.
2.0	-3.0	-5.0	0.	0.	0.	0.
2.0	-3.0	-4.285714149475098	0.	0.	0.	0.
2.0	-3.0	-3.5714285373687744	0.	0.	0.	0.
2.0	-3.0	-2.857142925262451	0.	0.	0.	0.
2.0	-3.0	-2.142857074737549	0.	0.	0.	0.
2.0	-3.0	-1.4285714626312256	0.	0.	0.	0.
2.0	-3.0	-0.7142859101295471	0.	0.	0.	0.
2.0	-3.0	0.0	0.	0.	0.	0.
1.5	-3.5	-5.0	0.	0.	0.	0.
1.5	-3.5	-4.285714149475098	0.	0.	0.	0.
1.5	-3.5	-3.5714285373687744	0.	0.	0.	0.
1.5	-3.5	-2.857142925262451	0.	0.	0.	0.
1.5	-3.5	-2.142857074737549	0.	0.	0.	0.
1.5	-3.5	-1.4285714626312256	0.	0.	0.	0.
1.5	-3.5	-0.7142859101295471	0.	0.	0.	0.
1.5	-3.5	0.0	0.	0.	0.	0.
1.0	-4.0	-5.0	0.	0.	0.	0.
1.0	-4.0	-4.285714149475098	0.	0.	0.	0.
1.0	-4.0	-3.5714285373687744	0.	0.	0.	0.
1.0	-4.0	-2.857142925262451	0.	0.	0.	0.
1.0	-4.0	-2.142857074737549	0.	0.	0.	0.
1.0	-4.0	-1.4285714626312256	0.	0.	0.	0.
1.0	-4.0	-0.7142859101295471	0.	0.	0.	0.
1.0	-4.0	0.0	0.	0.	0.	0.
0.5	-4.5	-5.0	0.	0.	0.	0.
0.5	-4.5	-4.285714149475098	0.	0.	0.	0.
0.5	-4.5	-3.5714285373687744	0.	0.	0.	0.
0.5	-4.5	-2.857142925262451	0.	0.	0.	0.
0.5	-4.5	-2.142857074737549	0.	0.	0.	0.
0.5	-4.5	-1.4285714626312256	0.	0.	0.	0.
0.5	-4.5	-0.7142859101295471	0.	0.	0.	0.
0.5	-4.5	0.0	0.	0.	0.	0.
0.0	-5.0	-5.0	0.	0.	0.	0.
0.0	-5.0	-4.285714149475098	0.	0.	0.	0.
0.0	-5.0	-3.5714285373687744	0.	0.	0.	0.
0.0	-5.0	-2.857142925262451	0.	0.	0.	0.
0.0	-5.0	-2.142857074737549	0.	0.	0.	0.
0.0	-5.0	-1.4285714626312256	0.	0.	0.	0.
0.0	-5.0	-0.7142859101295471	0.	0.	0.	0.
0.0	-5.0	0.0	0.	0.	0.	0.
5.0	0.0	-5.0	0.	0.	0.	0.
4.5	-0.5	-5.0	0.	0.	0.	0.
4.0	-1.0	-5.0	0.	0.	0.	0.
3.5	-1.5	-5.0	0.	0.	0.	0.
3.0	-2.0	-5.0	0.	0.	0.	0.
2.5	-2.5	-5.0	0.	0.	0.	0.
2.0	-3.0	-5.0	0.	0.	0.	0.
1.5	-3.5	-5.0	0.	0.	0.	0.
1.0	-4.0	-5.0	0.	0.	0.	0.
0.5	-4.5	-5.0	0.	0.	0.	0.
0.0	-5.0	-5.0	0.	0.	0.	0.
4.285714149475098	0.0	-5.0	0.	0.	0.	0.
3.857142686843872	-0.5	-5.0	0.	0.	0.	0.
3.4285712242126465	-1.0	-5.0	0.	0.	0.	0.
3.0	-1.5	-5.0	0.	0.	0.	0.
2.5714285373687744	-2.0	-5.0	0.	0.	0.	0.
2.142857074737549	-2.5	-5.0	0.	0.	0.	0.
1.7142856121063232	-3.0	-5.0	0.	0.	0.	0.
1.2857141494750977	-3.5	-5.0	0.	0.	0.	0.
0.8571429252624512	-4.0	-5.0	0.	0.	0.	0.
0.428571492433548	-4.5	-5.0	0.	0.	0.	0.
0.0	-5.0	-5.0	0.	0.	0.	0.
3.5714285373687744	0.0	-5.0	0.	0.	0.	0.
3.2142856121063232	-0.5	-5.0	0.	0.	0.	0.
2.857142925262451	-1.0	-5.0	0.	0.	0.	0.
2.5	-1.5	-5.0	0.	0.	0.	0.
2.142857074737549	-2.0	-5.0	0.	0.	0.	0.
1.7857141494750977	-2.5	-5.0	0.	0.	0.	0.
1.4285714626312256	-3.0	-5.0	0.	0.	0.	0.
1.0714285373687744	-3.5	-5.0	0.	0.	0.	0.
0.7142856121063232	-4.0	-5.0	0.	0.	0.	0.
0.3571428954601288	-4.5	-5.0	0.	0.	0.	0.
-2.0000000233721948e-07	-5.0	-5.0	0.	0.	0.	0.
2.857142925262451	0.0	-5.0	0.	0.	0.	0.
2.5714285373687744	-0.5	-5.0	0.	0.	0.	0.
2.2857143878936768	-1.0	-5.0	0.	0.	0.	0.
2.0	-1.5	-5.0	0.	0.	0.	0.
1.7142857313156128	-2.0	-5.0	0.	0.	0.	0.
1.4285714626312256	-2.5	-5.0	0.	0.	0.	0.
1.142857313156128	-3.0	-5.0	0.	0.	0.	0.
0.8571429252624512	-3.5	-5.0	0.	0.	0.	0.
0.5714284777641296	-4.0	-5.0	0.	0.	0.	0.
0.2857140898704529	-4.5	-5.0	0.	0.	0.	0.
0.0	-5.0	-5.0	0.	0.	0.	0.
2.142857074737549	0.0	-5.0	0.	0.	0.	0.
1.928571343421936	-0.5	-5.0	0.	0.	0.	0.
1.7142856121063232	-1.0	-5.0	0.	0.	0.	0.
1.5	-1.5	-5.0	0.	0.	0.	0.
1.2857142686843872	-2.0	-5.0	0.	0.	0.	0.
1.0714285373687744	-2.5	-5.0	0.	0.	0.	0.
0.8571428060531616	-3.0	-5.0	0.	0.	0.	0.
0.6428570747375488	-3.5	-5.0	0.	0.	0.	0.
0.428571492433548	-4.0	-5.0	0.	0.	0.	0.
0.2142857015132904	-4.5	-5.0	0.	0.	0.	0.
0.0	-5.0	-5.0	0.	0.	0.	0.
1.4285714626312256	0.0	-5.0	0.	0.	0.	0.
1.2857142686843872	-0.5	-5.0	0.	0.	0.	0.
1.1428571939468384	-1.0	-5.0	0.	0.	0.	0.
1.0	-1.5	-5.0	0.	0.	0.	0.
0.8571429252624512	-2.0	-5.0	0.	0.	0.	0.
0.714285671710968	-2.5	-5.0	0.	0.	0.	0.
0.5714287161827087	-3.0	-5.0	0.	0.	0.	0.
0.428571492433548	-3.5	-5.0	0.	0.	0.	0.
0.2857142984867096	-4.0	-5.0	0.	0.	0.	0.
0.14285710453987122	-4.5	-5.0	0.	0.	0.	0.
0.0	-5.0	-5.0	0.	0.	0.	0.
0.7142859101295471	0.0	-5.0	0.	0.	0.	0.
0.6428573131561279	-0.5	-5.0	0.	0.	0.	0.
0.5714287161827087	-1.0	-5.0	0.	0.	0.	0.
0.5000001192092896	-1.5	-5.0	0.	0.	0.	0.
0.428571492433548	-2.0	-5.0	0.	0.	0.	0.
0.3571428954601288	-2.5	-5.0	0.	0.	0.	0.
0.2857142984867096	-3.0	-5.0	0.	0.	0.	0.
0.2142857015132904	-3.5	-5.0	0.	0.	0.	0.
0.14285719394683838	-4.0	-5.0	0.	0.	0.	0.
0.07142859697341919	-4.5	-5.0	0.	0.	0.	0.
0.0	-5.0	-5.0	0.	0.	0.	0.
0.0	0.0	-5.0	0.	0.	0.	0.
0.0	-0.5	-5.0	0.	0.	0.	0.
0.0	-1.0	-5.0	0.	0.	0.	0.
0.0	-1.5	-5.0	0.	0.	0.	0.
0.0	-2.0	-5.0	0.	0.	0.	0.
0.0	-2.5	-5.0	0.	0.	0.	0.
0.0	-3.0	-5.0	0.	0.	0.	0.
0.0	-3.5	-5.0	0.	0.	0.	0.
0.0	-4.0	-5.0	0.	0.	0.	0.
0.0	-4.5	-5.0	0.	0.	0.	0.
0.0	-5.0	-5.0	0.	0.	0.	0.
-0.7142859101295471	0.0	-5.0	0.	0.	0.	0.
-0.6428573131561279	-0.5	-5.0	0.	0.	0.	0.
-0.5714287161827087	-1.0	-5.0	0.	0.	0.	0.
-0.5000001192092896	-1.5	-5.0	0.	0.	0.	0.
-0.428571492433548	-2.0	-5.0	0.	0.	0.	0.
-0.3571428954601288	-2.5	-5.0	0.	0.	0.	0.
-0.2857142984867096	-3.0	-5.0	0.	0.	0.	0.
-0.2142857015132904	-3.5	-5.0	0.	0.	0.	0.
-0.14285719394683838	-4.0	-5.0	0.	0.	0.	0.
-0.07142859697341919	-4.5	-5.0	0.	0.	0.	0.
0.0	-5.0	-5.0	0.	0.	0.	0.
-1.4285712242126465	0.0	-5.0	0.	0.	0.	0.
-1.2857141494750977	-0.5	-5.0	0.	0.	0.	0.
-1.1428569555282593	-1.0	-5.0	0.	0.	0.	0.
-0.9999998807907104	-1.5	-5.0	0.	0.	0.	0.
-0.8571426868438721	-2.0	-5.0	0.	0.	0.	0.
-0.7142856121063232	-2.5	-5.0	0.	0.	0.	0.
-0.5714284777641296	-3.0	-5.0	0.	0.	0.	0.
-0.4285714030265808	-3.5	-5.0	0.	0.	0.	0.
-0.2857142984867096	-4.0	-5.0	0.	0.	0.	0.
-0.14285710453987122	-4.5	-5.0	0.	0.	0.	0.
0.0	-5.0	-5.0	0.	0.	0.	0.
-2.142857074737549	0.0	-5.0	0.	0.	0.	0.
-1.928571343421936	-0.5	-5.0	0.	0.	0.	0.
-1.7142856121063232	-1.0	-5.0	0.	0.	0.	0.
-1.5	-1.5	-5.0	0.	0.	0.	0.
-1.2857142686843872	-2.0	-5.0	0.	0.	0.	0.
-1.0714285373687744	-2.5	-5.0	0.	0.	0.	0.
-0.8571428060531616	-3.0	-5.0	0.	0.	0.	0.
-0.6428570747375488	-3.5	-5.0	0.	0.	0.	0.
-0.428571492433548	-4.0	-5.0	0.	0.	0.	0.
-0.2142857015132904	-4.5	-5.0	0.	0.	0.	0.
0.0	-5.0	-5.0	0.	0.	0.	0.
-2.857142925262451	0.0	-5.0	0.	0.	0.	0.
-2.5714285373687744	-0.5	-5.0	0.	0.	0.	0.
-2.2857143878936768	-1.0	-5.0	0.	0.	0.	0.
-2.0	-1.5	-5.0	0.	0.	0.	0.
-1.7142857313156128	-2.0	-5.0	0.	0.	0.	0.
-1.4285714626312256	-2.5	-5.0	0.	0.	0.	0.
-1.142857313156128	-3.0	-5.0	0.	0.	0.	0.
-0.8571429252624512	-3.5	-5.0	0.	0.	0.	0.
-0.5714284777641296	-4.0	-5.0	0.	0.	0.	0.
-0.2857140898704529	-4.5	-5.0	0.	0.	0.	0.
0.0	-5.0	-5.0	0.	0.	0.	0.
-3.5714282989501953	0.0	-5.0	0.	0.	0.	0.
-3.214285373687744	-0.5	-5.0	0.	0.	0.	0.
-2.857142686843872	-1.0	-5.0	0.	0.	0.	0.
-2.499999761581421	-1.5	-5.0	0.	0.	0.	0.
-2.142857074737549	-2.0	-5.0	0.	0.	0.	0.
-1.7857141494750977	-2.5	-5.0	0.	0.	0.	0.
-1.4285712242126465	-3.0	-5.0	0.	0.	0.	0.
-1.0714285373687744	-3.5	-5.0	0.	0.	0.	0.
-0.7142856121063232	-4.0	-5.0	0.	0.	0.	0.
-0.3571428954601288	-4.5	-5.0	0.	0.	0.	0.
0.0	-5.0	-5.0	0.	0.	0.	0.
-4.285714149475098	0.0	-5.0	0.	0.	0.	0.
-3.857142686843872	-0.5	-5.0	0.	0.	0.	0.
-3.4285712242126465	-1.0	-5.0	0.	0.	0.	0.
-3.0	-1.5	-5.0	0.	0.	0.	0.
-2.5714285373687744	-2.0	-5.0	0.	0.	0.	0.
-2.142857074737549	-2.5	-5.0	0.	0.	0.	0.
-1.7142856121063232	-3.0	-5.0	0.	0.	0.	0.
-1.2857141494750977	-3.5	-5.0	0.	0.	0.	0.
-0.8571429252624512	-4.0	-5.0	0.	0.	0.	0.
-0.428571492433548	-4.5	-5.0	0.	0.	0.	0.
0.0	-5.0	-5.0	0.	0.	0.	0.
-5.0	0.0	-5.0	0.	0.	0.	0.
-4.5	-0.5	-5.0	0.	0.	0.	0.
-4.0	-1.0	-5.0	0.	0.	0.	0.
-3.5	-1.5	-5.0	0.	0.	0.	0.
-3.0	-2.0	-5.0	0.	0.	0.	0.
-2.5	-2.5	-5.0	0.	0.	0.	0.
-2.0	-3.0	-5.0	0.	0.	0.	0.
-1.5	-3.5	-5.0	0.	0.	0.	0.
-1.0	-4.0	-5.0	0.	0.	0.	0.
-0.5	-4.5	-5.0	0.	0.	0.	0.
0.0	-5.0	-5.0	0.	0.	0.	0.
105.0	-5.0	-5.0	0.	0.	0.	0.
105.0	-5.0	-4.285714149475098	0.	0.	0.	0.
105.0	-5.0	-3.5714285373687744	0.	0.	0.	0.
105.0	-5.0	-2.857142925262451	0.	0.	0.	0.
105.0	-5.0	-2.142857074737549	0.	0.	0.	0.
105.0	-5.0	-1.4285714626312256	0.	0.	0.	0.
105.0	-5.0	-0.7142859101295471	0.	0.	0.	0.
105.0	-5.0	0.0	0.	0.	0.	0.
104.23076629638672	-5.0	-5.0	0.	0.	0.	0.
104.23076629638672	-5.0	-4.285714149475098	0.	0.	0.	0.
104.23076629638672	-5.0	-3.5714285373687744	0.	0.	0.	0.
104.23076629638672	-5.0	-2.857142925262451	0.	0.	0.	0.
104.23076629638672	-5.0	-2.142857074737549	0.	0.	0.	0.
104.23076629638672	-5.0	-1.4285714626312256	0.	0.	0.	0.
104.23076629638672	-5.0	-0.7142859101295471	0.	0.	0.	0.
104.23076629638672	-5.0	0.0	0.	0.	0.	0.
103.46154022216797	-5.0	-5.0	0.	0.	0.	0.
103.46154022216797	-5.0	-4.285714149475098	0.	0.	0.	0.
103.46154022216797	-5.0	-3.5714285373687744	0.	0.	0.	0.
103.46154022216797	-5.0	-2.857142925262451	0.	0.	0.	0.
103.46154022216797	-5.0	-2.142857074737549	0.	0.	0.	0.
103.46154022216797	-5.0	-1.4285714626312256	0.	0.	0.	0.
103.46154022216797	-5.0	-0.7142859101295471	0.	0.	0.	0.
103.46154022216797	-5.0	0.0	0.	0.	0.	0.
102.69230651855469	-5.0	-5.0	0.	0.	0.	0.
102.69230651855469	-5.0	-4.285714149475098	0.	0.	0.	0.
102.69230651855469	-5.0	-3.5714285373687744	0.	0.	0.	0.
102.69230651855469	-5.0	-2.857142925262451	0.	0.	0.	0.
102.69230651855469	-5.0	-2.142857074737549	0.	0.	0.	0.
102.69230651855469	-5.0	-1.4285714626312256	0.	0.	0.	0.
102.69230651855469	-5.0	-0.7142859101295471	0.	0.	0.	0.
102.69230651855469	-5.0	0.0	0.	0.	0.	0.
101.92308044433594	-5.0	-5.0	0.	0.	0.	0.
101.92308044433594	-5.0	-4.285714149475098	0.	0.	0.	0.
101.92308044433594	-5.0	-3.5714285373687744	0.	0.	0.	0.
101.92308044433594	-5.0	-2.857142925262451	0.	0.	0.	0.
101.92308044433594	-5.0	-2.142857074737549	0.	0.	0.	0.
101.92308044433594	-5.0	-1.4285714626312256	0.	0.	0.	0.
101.92308044433594	-5.0	-0.7142859101295471	0.	0.	0.	0.
101.92308044433594	-5.0	0.0	0.	0.	0.	0.
101.15384674072266	-5.0	-5.0	0.	0.	0.	0.
101.15384674072266	-5.0	-4.285714149475098	0.	0.	0.	0.
101.15384674072266	-5.0	-3.5714285373687744	0.	0.	0.	0.
101.15384674072266	-5.0	-2.857142925262451	0.	0.	0.	0.
101.15384674072266	-5.0	-2.142857074737549	0.	0.	0.	0.
101.15384674072266	-5.0	-1.4285714626312256	0.	0.	0.	0.
101.15384674072266	-5.0	-0.7142859101295471	0.	0.	0.	0.
101.15384674072266	-5.0	0.0	0.	0.	0.	0.
100.38461303710938	-5.0	-5.0	0.	0.	0.	0.
100.38461303710938	-5.0	-4.285714149475098	0.	0.	0.	0.
100.38461303710938	-5.0	-3.5714285373687744	0.	0.	0.	0.
100.38461303710938	-5.0	-2.857142925262451	0.	0.	0.	0.
100.38461303710938	-5.0	-2.142857074737549	0.	0.	0.	0.
100.38461303710938	-5.0	-1.4285714626312256	0.	0.	0.	0.
100.38461303710938	-5.0	-0.7142859101295471	0.	0.	0.	0.
100.38461303710938	-5.0	0.0	0.	0.	0.	0.
99.61538696289062	-5.0	-5.0	0.	0.	0.	0.
99.61538696289062	-5.0	-4.285714149475098	0.	0.	0.	0.
99.61538696289062	-5.0	-3.5714285373687744	0.	0.	0.	0.
99.61538696289062	-5.0	-2.857142925262451	0.	0.	0.	0.
99.61538696289062	-5.0	-2.142857074737549	0.	0.	0.	0.
99.61538696289062	-5.0	-1.4285714626312256	0.	0.	0.	0.
99.61538696289062	-5.0	-0.7142859101295471	0.	0.	0.	0.
99.61538696289062	-5.0	0.0	0.	0.	0.	0.
98.84615325927734	-5.0	-5.0	0.	0.	0.	0.
98.84615325927734	-5.0	-4.285714149475098	0.	0.	0.	0.
98.84615325927734	-5.0	-3.5714285373687744	0.	0.	0.	0.
98.84615325927734	-5.0	-2.857142925262451	0.	0.	0.	0.
98.84615325927734	-5.0	-2.142857074737549	0.	0.	0.	0.
98.84615325927734	-5.0	-1.4285714626312256	0.	0.	0.	0.
98.84615325927734	-5.0	-0.7142859101295471	0.	0.	0.	0.
98.84615325927734	-5.0	0.0	0.	0.	0.	0.
98.07691955566406	-5.0	-5.0	0.	0.	0.	0.
98.07691955566406	-5.0	-4.285714149475098	0.	0.	0.	0.
98.07691955566406	-5.0	-3.5714285373687744	0.	0.	0.	0.
98.07691955566406	-5.0	-2.857142925262451	0.	0.	0.	0.
98.07691955566406	-5.0	-2.142857074737549	0.	0.	0.	0.
98.07691955566406	-5.0	-1.4285714626312256	0.	0.	0.	0.
98.07691955566406	-5.0	-0.7142859101295471	0.	0.	0.	0.
98.07691955566406	-5.0	0.0	0.	0.	0.	0.
97.30769348144531	-5.0	-5.0	0.	0.	0.	0.
97.30769348144531	-5.0	-4.285714149475098	0.	0.	0.	0.
97.30769348144531	-5.0	-3.5714285373687744	0.	0.	0.	0.
97.30769348144531	-5.0	-2.857142925262451	0.	0.	0.	0.
97.30769348144531	-5.0	-2.142857074737549	0.	0.	0.	0.
97.30769348144531	-5.0	-1.4285714626312256	0.	0.	0.	0.
97.30769348144531	-5.0	-0.7142859101295471	0.	0.	0.	0.
97.30769348144531	-5.0	0.0	0.	0.	0.	0.
96.53845977783203	-5.0	-5.0	0.	0.	0.	0.
96.53845977783203	-5.0	-4.285714149475098	0.	0.	0.	0.
96.53845977783203	-5.0	-3.5714285373687744	0.	0.	0.	0.
96.53845977783203	-5.0	-2.857142925262451	0.	0.	0.	0.
96.53845977783203	-5.0	-2.142857074737549	0.	0.	0.	0.
96.53845977783203	-5.0	-1.4285714626312256	0.	0.	0.	0.
96.53845977783203	-5.0	-0.7142859101295471	0.	0.	0.	0.
96.53845977783203	-5.0	0.0	0.	0.	0.	0.
95.76923370361328	-5.0	-5.0	0.	0.	0.	0.
95.76923370361328	-5.0	-4.285714149475098	0.	0.	0.	0.
95.76923370361328	-5.0	-3.5714285373687744	0.	0.	0.	0.
95.76923370361328	-5.0	-2.857142925262451	0.	0.	0.	0.
95.76923370361328	-5.0	-2.142857074737549	0.	0.	0.	0.
95.76923370361328	-5.0	-1.4285714626312256	0.	0.	0.	0.
95.76923370361328	-5.0	-0.7142859101295471	0.	0.	0.	0.
95.76923370361328	-5.0	0.0	0.	0.	0.	0.
95.0	-5.0	-5.0	0.	0.	0.	0.
95.0	-5.0	-4.285714149475098	0.	0.	0.	0.
95.0	-5.0	-3.5714285373687744	0.	0.	0.	0.
95.0	-5.0	-2.857142925262451	0.	0.	0.	0.
95.0	-5.0	-2.142857074737549	0.	0.	0.	0.
95.0	-5.0	-1.4285714626312256	0.	0.	0.	0.
95.0	-5.0	-0.7142859101295471	0.	0.	0.	0.
95.0	-5.0	0.0	0.	0.	0.	0.
95.0	-5.0	-5.0	0.	0.	0.	0.
95.0	-5.0	-4.285714149475098	0.	0.	0.	0.
95.0	-5.0	-3.5714285373687744	0.	0.	0.	0.
95.0	-5.0	-2.857142925262451	0.	0.	0.	0.
95.0	-5.0	-2.142857074737549	0.	0.	0.	0.
95.0	-5.0	-1.4285714626312256	0.	0.	0.	0.
95.0	-5.0	-0.7142859101295471	0.	0.	0.	0.
95.0	-5.0	0.0	0.	0.	0.	0.
95.0	-4.285714149475098	-5.0	0.	0.	0.	0.
95.0	-4.285714149475098	-4.285714149475098	0.	0.	0.	0.
95.0	-4.285714149475098	-3.5714285373687744	0.	0.	0.	0.
95.0	-4.285714149475098	-2.857142925262451	0.	0.	0.	0.
95.0	-4.285714149475098	-2.142857074737549	0.	0.	0.	0.
95.0	-4.285714149475098	-1.4285714626312256	0.	0.	0.	0.
95.0	-4.285714149475098	-0.7142859101295471	0.	0.	0.	0.
95.0	-4.285714149475098	0.0	0.	0.	0.	0.
95.0	-3.5714285373687744	-5.0	0.	0.	0.	0.
95.0	-3.5714285373687744	-4.285714149475098	0.	0.	0.	0.
95.0	-3.5714285373687744	-3.5714285373687744	0.	0.	0.	0.
95.0	-3.5714285373687744	-2.857142925262451	0.	0.	0.	0.
95.0	-3.5714285373687744	-2.142857074737549	0.	0.	0.	0.
95.0	-3.5714285373687744	-1.4285714626312256	0.	0.	0.	0.
95.0	-3.5714285373687744	-0.7142859101295471	0.	0.	0.	0.
95.0	-3.5714285373687744	0.0	0.	0.	0.	0.
95.0	-2.857142925262451	-5.0	0.	0.	0.	0.
95.0	-2.857142925262451	-4.285714149475098	0.	0.	0.	0.
95.0	-2.857142925262451	-3.5714285373687744	0.	0.	0.	0.
95.0	-2.857142925262451	-2.857142925262451	0.	0.	0.	0.
95.0	-2.857142925262451	-2.142857074737549	0.	0.	0.	0.
95.0	-2.857142925262451	-1.4285714626312256	0.	0.	0.	0.
95.0	-2.857142925262451	-0.7142859101295471	0.	0.	0.	0.
95.0	-2.857142925262451	0.0	0.	0.	0.	0.
95.0	-2.142857074737549	-5.0	0.	0.	0.	0.
95.0	-2.142857074737549	-4.285714149475098	0.	0.	0.	0.
95.0	-2.142857074737549	-3.5714285373687744	0.	0.	0.	0.
95.0	-2.142857074737549	-2.857142925262451	0.	0.	0.	0.
95.0	-2.142857074737549	-2.142857074737549	0.	0.	0.	0.
95.0	-2.142857074737549	-1.4285714626312256	0.	0.	0.	0.
95.0	-2.142857074737549	-0.7142859101295471	0.	0.	0.	0.
95.0	-2.142857074737549	0.0	0.	0.	0.	0.
95.0	-1.4285714626312256	-5.0	0.	0.	0.	0.
95.0	-1.4285714626312256	-4.285714149475098	0.	0.	0.	0.
95.0	-1.4285714626312256	-3.5714285373687744	0.	0.	0.	0.
95.0	-1.4285714626312256	-2.857142925262451	0.	0.	0.	0.
95.0	-1.4285714626312256	-2.142857074737549	0.	0.	0.	0.
95.0	-1.4285714626312256	-1.4285714626312256	0.	0.	0.	0.
95.0	-1.4285714626312256	-0.7142859101295471	0.	0.	0.	0.
95.0	-1.4285714626312256	0.0	0.	0.	0.	0.
95.0	-0.7142859101295471	-5.0	0.	0.	0.	0.
95.0	-0.7142859101295471	-4.285714149475098	0.	0.	0.	0.
95.0	-0.7142859101295471	-3.5714285373687744	0.	0.	0.	0.
95.0	-0.7142859101295471	-2.857142925262451	0.	0.	0.	0.
95.0	-0.7142859101295471	-2.142857074737549	0.	0.	0.	0.
95.0	-0.7142859101295471	-1.4285714626312256	0.	0.	0.	0.
95.0	-0.7142859101295471	-0.7142859101295471	0.	0.	0.	0.
95.0	-0.7142859101295471	0.0	0.	0.	0.	0.
95.0	0.0	-5.0	0.	0.	0.	0.
95.0	0.0	-4.285714149475098	0.	0.	0.	0.
95.0	0.0	-3.5714285373687744	0.	0.	0.	0.
95.0	0.0	-2.857142925262451	0.	0.	0.	0.
95.0	0.0	-2.142857074737549	0.	0.	0.	0.
95.0	0.0	-1.4285714626312256	0.	0.	0.	0.
95.0	0.0	-0.7142859101295471	0.	0.	0.	0.
95.0	0.0	0.0	0.	0.	0.	0.
105.0	0.0	0.0	0.	0.	0.	0.
105.0	-0.714285671710968	0.0	0.	0.	0.	0.
105.0	-1.4285714626312256	0.0	0.	0.	0.	0.
105.0	-2.142857074737549	0.0	0.	0.	0.	0.
105.0	-2.857142925262451	0.0	0.	0.	0.	0.
105.0	-3.5714285373687744	0.0	0.	0.	0.	0.
105.0	-4.285714149475098	0.0	0.	0.	0.	0.
105.0	-5.0	0.0	0.	0.	0.	0.
105.0	0.0	-0.714285671710968	0.	0.	0.	0.
105.0	-0.714285671710968	-0.714285671710968	0.	0.	0.	0.
105.0	-1.4285714626312256	-0.714285671710968	0.	0.	0.	0.
105.0	-2.142857074737549	-0.714285671710968	0.	0.	0.	0.
105.0	-2.857142925262451	-0.714285671710968	0.	0.	0.	0.
105.0	-3.5714285373687744	-0.714285671710968	0.	0.	0.	0.
105.0	-4.285714149475098	-0.714285671710968	0.	0.	0.	0.
105.0	-5.0	-0.714285671710968	0.	0.	0.	0.
105.0	0.0	-1.4285714626312256	0.	0.	0.	0.
105.0	-0.714285671710968	-1.4285714626312256	0.	0.	0.	0.
105.0	-1.4285714626312256	-1.4285714626312256	0.	0.	0.	0.
105.0	-2.142857074737549	-1.4285714626312256	0.	0.	0.	0.
105.0	-2.857142925262451	-1.4285714626312256	0.	0.	0.	0.
105.0	-3.5714285373687744	-1.4285714626312256	0.	0.	0.	0.
105.0	-4.285714149475098	-1.4285714626312256	0.	0.	0.	0.
105.0	-5.0	-1.4285714626312256	0.	0.	0.	0.
105.0	0.0	-2.142857074737549	0.	0.	0.	0.
105.0	-0.714285671710968	-2.142857074737549	0.	0.	0.	0.
105.0	-1.4285714626312256	-2.142857074737549	0.	0.	0.	0.
105.0	-2.142857074737549	-2.142857074737549	0.	0.	0.	0.
105.0	-2.857142925262451	-2.142857074737549	0.	0.	0.	0.
105.0	-3.5714285373687744	-2.142857074737549	0.	0.	0.	0.
105.0	-4.285714149475098	-2.142857074737549	0.	0.	0.	0.
105.0	-5.0	-2.142857074737549	0.	0.	0.	0.
105.0	0.0	-2.857142925262451	0.	0.	0.	0.
105.0	-0.714285671710968	-2.857142925262451	0.	0.	0.	0.
105.0	-1.4285714626312256	-2.857142925262451	0.	0.	0.	0.
105.0	-2.142857074737549	-2.857142925262451	0.	0.	0.	0.
105.0	-2.857142925262451	-2.857142925262451	0.	0.	0.	0.
105.0	-3.5714285373687744	-2.857142925262451	0.	0.	0.	0.
105.0	-4.285714149475098	-2.857142925262451	0.	0.	0.	0.
105.0	-5.0	-2.857142925262451	0.	0.	0.	0.
105.0	0.0	-3.5714285373687744	0.	0.	0.	0.
105.0	-0.714285671710968	-3.5714285373687744	0.	0.	0.	0.
105.0	-1.4285714626312256	-3.5714285373687744	0.	0.	0.	0.
105.0	-2.142857074737549	-3.5714285373687744	0.	0.	0.	0.
105.0	-2.857142925262451	-3.5714285373687744	0.	0.	0.	0.
105.0	-3.5714285373687744	-3.5714285373687744	0.	0.	0.	0.
105.0	-4.285714149475098	-3.5714285373687744	0.	0.	0.	0.
105.0	-5.0	-3.5714285373687744	0.	0.	0.	0.
105.0	0.0	-4.285714149475098	0.	0.	0.	0.
105.0	-0.714285671710968	-4.285714149475098	0.	0.	0.	0.
105.0	-1.4285714626312256	-4.285714149475098	0.	0.	0.	0.
105.0	-2.142857074737549	-4.285714149475098	0.	0.	0.	0.
105.0	-2.857142925262451	-4.285714149475098	0.	0.	0.	0.
105.0	-3.5714285373687744	-4.285714149475098	0.	0.	0.	0.
105.0	-4.285714149475098	-4.285714149475098	0.	0.	0.	0.
105.0	-5.0	-4.285714149475098	0.	0.	0.	0.
105.0	0.0	-5.0	0.	0.	0.	0.
105.0	-0.714285671710968	-5.0	0.	0.	0.	0.
105.0	-1.4285714626312256	-5.0	0.	0.	0.	0.
105.0	-2.142857074737549	-5.0	0.	0.	0.	0.
105.0	-2.857142925262451	-5.0	0.	0.	0.	0.
105.0	-3.5714285373687744	-5.0	0.	0.	0.	0.
105.0	-4.285714149475098	-5.0	0.	0.	0.	0.
105.0	-5.0	-5.0	0.	0.	0.	0.
105.0	0.0	-5.0	0.	0.	0.	0.
105.0	-0.714285671710968	-5.0	0.	0.	0.	0.
105.0	-1.4285714626312256	-5.0	0.	0.	0.	0.
105.0	-2.142857074737549	-5.0	0.	0.	0.	0.
105.0	-2.857142925262451	-5.0	0.	0.	0.	0.
105.0	-3.5714285373687744	-5.0	0.	0.	0.	0.
105.0	-4.285714149475098	-5.0	0.	0.	0.	0.
105.0	-5.0	-5.0	0.	0.	0.	0.
104.23076629638672	0.0	-5.0	0.	0.	0.	0.
104.23076629638672	-0.714285671710968	-5.0	0.	0.	0.	0.
104.23076629638672	-1.4285714626312256	-5.0	0.	0.	0.	0.
104.23076629638672	-2.142857074737549	-5.0	0.	0.	0.	0.
104.23076629638672	-2.857142925262451	-5.0	0.	0.	0.	0.
104.23076629638672	-3.5714285373687744	-5.0	0.	0.	0.	0.
104.23076629638672	-4.285714149475098	-5.0	0.	0.	0.	0.
104.23076629638672	-5.0	-5.0	0.	0.	0.	0.
103.46154022216797	0.0	-5.0	0.	0.	0.	0.
103.46154022216797	-0.714285671710968	-5.0	0.	0.	0.	0.
103.46154022216797	-1.4285714626312256	-5.0	0.	0.	0.	0.
103.46154022216797	-2.142857074737549	-5.0	0.	0.	0.	0.
103.46154022216797	-2.857142925262451	-5.0	0.	0.	0.	0.
103.46154022216797	-3.5714285373687744	-5.0	0.	0.	0.	0.
103.46154022216797	-4.285714149475098	-5.0	0.	0.	0.	0.
103.46154022216797	-5.0	-5.0	0.	0.	0.	0.
102.69230651855469	0.0	-5.0	0.	0.	0.	0.
102.69230651855469	-0.714285671710968	-5.0	0.	0.	0.	0.
102.69230651855469	-1.4285714626312256	-5.0	0.	0.	0.	0.
102.69230651855469	-2.142857074737549	-5.0	0.	0.	0.	0.
102.69230651855469	-2.857142925262451	-5.0	0.	0.	0.	0.
102.69230651855469	-3.5714285373687744	-5.0	0.	0.	0.	0.
102.69230651855469	-4.285714149475098	-5.0	0.	0.	0.	0.
102.69230651855469	-5.0	-5.0	0.	0.	0.	0.
101.92308044433594	0.0	-5.0	0.	0.	0.	0.
101.92308044433594	-0.714285671710968	-5.0	0.	0.	0.	0.
101.92308044433594	-1.4285714626312256	-5.0	0.	0.	0.	0.
101.92308044433594	-2.142857074737549	-5.0	0.	0.	0.	0.
101.92308044433594	-2.857142925262451	-5.0	0.	0.	0.	0.
101.92308044433594	-3.5714285373687744	-5.0	0.	0.	0.	0.
101.92308044433594	-4.285714149475098	-5.0	0.	0.	0.	0.
101.92308044433594	-5.0	-5.0	0.	0.	0.	0.
101.15384674072266	0.0	-5.0	0.	0.	0.	0.
101.15384674072266	-0.714285671710968	-5.0	0.	0.	0.	0.
101.15384674072266	-1.4285714626312256	-5.0	0.	0.	0.	0.
101.15384674072266	-2.142857074737549	-5.0	0.	0.	0.	0.
101.15384674072266	-2.857142925262451	-5.0	0.	0.	0.	0.
101.15384674072266	-3.5714285373687744	-5.0	0.	0.	0.	0.
101.15384674072266	-4.285714149475098	-5.0	0.	0.	0.	0.
101.15384674072266	-5.0	-5.0	0.	0.	0.	0.
100.38461303710938	0.0	-5.0	0.	0.	0.	0.
100.38461303710938	-0.714285671710968	-5.0	0.	0.	0.	0.
100.38461303710938	-1.4285714626312256	-5.0	0.	0.	0.	0.
100.38461303710938	-2.142857074737549	-5.0	0.	0.	0.	0.
100.38461303710938	-2.857142925262451	-5.0	0.	0.	0.	0.
100.38461303710938	-3.5714285373687744	-5.0	0.	0.	0.	0.
100.38461303710938	-4.285714149475098	-5.0	0.	0.	0.	0.
100.38461303710938	-5.0	-5.0	0.	0.	0.	0.
99.61538696289062	0.0	-5.0	0.	0.	0.	0.
99.61538696289062	-0.714285671710968	-5.0	0.	0.	0.	0.
99.61538696289062	-1.4285714626312256	-5.0	0.	0.	0.	0.
99.61538696289062	-2.142857074737549	-5.0	0.	0.	0.	0.
99.61538696289062	-2.857142925262451	-5.0	0.	0.	0.	0.
99.61538696289062	-3.5714285373687744	-5.0	0.	0.	0.	0.
99.61538696289062	-4.285714149475098	-5.0	0.	0.	0.	0.
99.61538696289062	-5.0	-5.0	0.	0.	0.	0.
98.84615325927734	0.0	-5.0	0.	0.	0.	0.
98.84615325927734	-0.714285671710968	-5.0	0.	0.	0.	0.
98.84615325927734	-1.4285714626312256	-5.0	0.	0.	0.	0.
98.84615325927734	-2.142857074737549	-5.0	0.	0.	0.	0.
98.84615325927734	-2.857142925262451	-5.0	0.	0.	0.	0.
98.84615325927734	-3.5714285373687744	-5.0	0.	0.	0.	0.
98.84615325927734	-4.285714149475098	-5.0	0.	0.	0.	0.
98.84615325927734	-5.0	-5.0	0.	0.	0.	0.
98.07691955566406	0.0	-5.0	0.	0.	0.	0.
98.07691955566406	-0.714285671710968	-5.0	0.	0.	0.	0.
98.07691955566406	-1.4285714626312256	-5.0	0.	0.	0.	0.
98.07691955566406	-2.142857074737549	-5.0	0.	0.	0.	0.
98.07691955566406	-2.857142925262451	-5.0	0.	0.	0.	0.
98.07691955566406	-3.5714285373687744	-5.0	0.	0.	0.	0.
98.07691955566406	-4.285714149475098	-5.0	0.	0.	0.	0.
98.07691955566406	-5.0	-5.0	0.	0.	0.	0.
97.30769348144531	0.0	-5.0	0.	0.	0.	0.
97.30769348144531	-0.714285671710968	-5.0	0.	0.	0.	0.
97.30769348144531	-1.4285714626312256	-5.0	0.	0.	0.	0.
97.30769348144531	-2.142857074737549	-5.0	0.	0.	0.	0.
97.30769348144531	-2.857142925262451	-5.0	0.	0.	0.	0.
97.30769348144531	-3.5714285373687744	-5.0	0.	0.	0.	0.
97.30769348144531	-4.285714149475098	-5.0	0.	0.	0.	0.
97.30769348144531	-5.0	-5.0	0.	0.	0.	0.
96.53845977783203	0.0	-5.0	0.	0.	0.	0.
96.53845977783203	-0.714285671710968	-5.0	0.	0.	0.	0.
96.53845977783203	-1.4285714626312256	-5.0	0.	0.	0.	0.
96.53845977783203	-2.142857074737549	-5.0	0.	0.	0.	0.
96.53845977783203	-2.857142925262451	-5.0	0.	0.	0.	0.
96.53845977783203	-3.5714285373687744	-5.0	0.	0.	0.	0.
96.53845977783203	-4.285714149475098	-5.0	0.	0.	0.	0.
96.53845977783203	-5.0	-5.0	0.	0.	0.	0.
95.76923370361328	0.0	-5.0	0.	0.	0.	0.
95.76923370361328	-0.714285671710968	-5.0	0.	0.	0.	0.
95.76923370361328	-1.4285714626312256	-5.0	0.	0.	0.	0.
95.76923370361328	-2.142857074737549	-5.0	0.	0.	0.	0.
95.76923370361328	-2.857142925262451	-5.0	0.	0.	0.	0.
95.76923370361328	-3.5714285373687744	-5.0	0.	0.	0.	0.
95.76923370361328	-4.285714149475098	-5.0	0.	0.	0.	0.
95.76923370361328	-5.0	-5.0	0.	0.	0.	0.
95.0	0.0	-5.0	0.	0.	0.	0.
95.0	-0.714285671710968	-5.0	0.	0.	0.	0.
95.0	-1.4285714626312256	-5.0	0.	0.	0.	0.
95.0	-2.142857074737549	-5.0	0.	0.	0.	0.
95.0	-2.857142925262451	-5.0	0.	0.	0.	0.
95.0	-3.5714285373687744	-5.0	0.	0.	0.	0.
95.0	-4.285714149475098	-5.0	0.	0.	0.	0.
95.0	-5.0	-5.0	0.	0.	0.	0.
1.0	2.0	10.0	9.0
2.0	3.0	11.0	10.0